file 422 1609782379                                             
version 2
run General-0-20210104-14:46:03-14920
attr configname General
attr datetime 20210104-14:46:03
attr experiment General
attr inifile Perfil.ini
attr iterationvars ""
attr iterationvarsf ""
attr measurement ""
attr network Perfil
attr processid 14920
attr repetition 0
attr replication #0
attr resultdir results
attr runnumber 0
attr seedset 0

vector 0 Perfil.comum "" ETV
0	399 21 26 29 3 3 2 7 10 17 149

